 VARIABLES = "X","Y","U","V","P","T"
 ZONE T="1280" F=FEPOINT,ET=TRIANGLE,N=2601,E=5000
   0.0000000        0.0000000        0.0000000        0.0000000        0.0000000        0.0000000    
  0.33401432E-02    0.0000000        0.0000000        0.0000000      -0.24349083E-04    0.0000000    
  0.71061441E-02    0.0000000        0.0000000        0.0000000      -0.24344922E-04    0.0000000    
  0.11352298E-01    0.0000000        0.0000000        0.0000000      -0.18682606E-04    0.0000000    
  0.16139824E-01    0.0000000        0.0000000        0.0000000      -0.18376162E-04    0.0000000    
  0.21537744E-01    0.0000000        0.0000000        0.0000000      -0.30343652E-04    0.0000000    
  0.27623881E-01    0.0000000        0.0000000        0.0000000      -0.60136342E-04    0.0000000    
  0.34485982E-01    0.0000000        0.0000000        0.0000000      -0.11300171E-03    0.0000000    
  0.42222980E-01    0.0000000        0.0000000        0.0000000      -0.19402082E-03    0.0000000    
  0.50946420E-01    0.0000000        0.0000000        0.0000000      -0.30781956E-03    0.0000000    
  0.60782071E-01    0.0000000        0.0000000        0.0000000      -0.45815862E-03    0.0000000    
  0.71871737E-01    0.0000000        0.0000000        0.0000000      -0.64736517E-03    0.0000000    
  0.84375300E-01    0.0000000        0.0000000        0.0000000      -0.87563070E-03    0.0000000    
  0.98473029E-01    0.0000000        0.0000000        0.0000000      -0.11401481E-02    0.0000000    
  0.11436817        0.0000000        0.0000000        0.0000000      -0.14342488E-02    0.0000000    
  0.13228990        0.0000000        0.0000000        0.0000000      -0.17461889E-02    0.0000000    
  0.15249659        0.0000000        0.0000000        0.0000000      -0.20588841E-02    0.0000000    
  0.17527956        0.0000000        0.0000000        0.0000000      -0.23473341E-02    0.0000000    
  0.20096730        0.0000000        0.0000000        0.0000000      -0.25813305E-02    0.0000000    
  0.22993014        0.0000000        0.0000000        0.0000000      -0.27166919E-02    0.0000000    
  0.26258565        0.0000000        0.0000000        0.0000000      -0.27069446E-02    0.0000000    
  0.29940464        0.0000000        0.0000000        0.0000000      -0.24748661E-02    0.0000000    
  0.34091793        0.0000000        0.0000000        0.0000000      -0.19488044E-02    0.0000000    
  0.38772404        0.0000000        0.0000000        0.0000000      -0.99733055E-03    0.0000000    
  0.44049778        0.0000000        0.0000000        0.0000000       0.45988208E-03    0.0000000    
  0.50000000        0.0000000        0.0000000        0.0000000       0.25589083E-02    0.0000000    
  0.55950222        0.0000000        0.0000000        0.0000000       0.48252942E-02    0.0000000    
  0.61227596        0.0000000        0.0000000        0.0000000       0.65093193E-02    0.0000000    
  0.65908207        0.0000000        0.0000000        0.0000000       0.76145705E-02    0.0000000    
  0.70059536        0.0000000        0.0000000        0.0000000       0.81190408E-02    0.0000000    
  0.73741435        0.0000000        0.0000000        0.0000000       0.81740002E-02    0.0000000    
  0.77006986        0.0000000        0.0000000        0.0000000       0.79106790E-02    0.0000000    
  0.79903270        0.0000000        0.0000000        0.0000000       0.74696764E-02    0.0000000    
  0.82472044        0.0000000        0.0000000        0.0000000       0.69500608E-02    0.0000000    
  0.84750341        0.0000000        0.0000000        0.0000000       0.64245113E-02    0.0000000    
  0.86771010        0.0000000        0.0000000        0.0000000       0.59361560E-02    0.0000000    
  0.88563183        0.0000000        0.0000000        0.0000000       0.55088343E-02    0.0000000    
  0.90152697        0.0000000        0.0000000        0.0000000       0.51519420E-02    0.0000000    
  0.91562470        0.0000000        0.0000000        0.0000000       0.48660163E-02    0.0000000    
  0.92812826        0.0000000        0.0000000        0.0000000       0.46461718E-02    0.0000000    
  0.93921793        0.0000000        0.0000000        0.0000000       0.44846890E-02    0.0000000    
  0.94905358        0.0000000        0.0000000        0.0000000       0.43726156E-02    0.0000000    
  0.95777702        0.0000000        0.0000000        0.0000000       0.43008051E-02    0.0000000    
  0.96551402        0.0000000        0.0000000        0.0000000       0.42605002E-02    0.0000000    
  0.97237612        0.0000000        0.0000000        0.0000000       0.42436641E-02    0.0000000    
  0.97846226        0.0000000        0.0000000        0.0000000       0.42431047E-02    0.0000000    
  0.98386018        0.0000000        0.0000000        0.0000000       0.42524274E-02    0.0000000    
  0.98864770        0.0000000        0.0000000        0.0000000       0.42657843E-02    0.0000000    
  0.99289386        0.0000000        0.0000000        0.0000000       0.42779826E-02    0.0000000    
  0.99665986        0.0000000        0.0000000        0.0000000       0.42856505E-02    0.0000000    
   1.0000000        0.0000000        0.0000000        0.0000000       0.42881049E-02    0.0000000    
   0.0000000       0.33401432E-02    0.0000000        0.0000000      -0.32823348E-04    0.0000000    
  0.33401432E-02   0.33401432E-02   0.10876227E-05   0.71424808E-06  -0.34132559E-04    0.0000000    
  0.71061441E-02   0.33401432E-02   0.24551318E-05  -0.52112401E-06  -0.30608832E-04    0.0000000    
  0.11352298E-01   0.33401432E-02   0.56536785E-05  -0.16135383E-05  -0.26179000E-04    0.0000000    
  0.16139824E-01   0.33401432E-02   0.10893895E-04  -0.22432751E-05  -0.27085126E-04    0.0000000    
  0.21537744E-01   0.33401432E-02   0.17720327E-04  -0.24701886E-05  -0.39140457E-04    0.0000000    
  0.27623881E-01   0.33401432E-02   0.25308872E-04  -0.23514766E-05  -0.67746329E-04    0.0000000    
  0.34485982E-01   0.33401432E-02   0.32490908E-04  -0.19132654E-05  -0.11818822E-03    0.0000000    
  0.42222980E-01   0.33401432E-02   0.37693865E-04  -0.11757346E-05  -0.19559921E-03    0.0000000    
  0.50946420E-01   0.33401432E-02   0.38876297E-04  -0.16379501E-06  -0.30470484E-03    0.0000000    
  0.60782071E-01   0.33401432E-02   0.33478573E-04   0.10906821E-05  -0.44938636E-03    0.0000000    
  0.71871737E-01   0.33401432E-02   0.18393326E-04   0.25481234E-05  -0.63213821E-03    0.0000000    
  0.84375300E-01   0.33401432E-02  -0.10031454E-04   0.41596151E-05  -0.85335637E-03    0.0000000    
  0.98473029E-01   0.33401432E-02  -0.55933717E-04   0.58663739E-05  -0.11104822E-02    0.0000000    
  0.11436817       0.33401432E-02  -0.12382750E-03   0.76008857E-05  -0.13971554E-02    0.0000000    
  0.13228990       0.33401432E-02  -0.21836434E-03   0.92880704E-05  -0.17019595E-02    0.0000000    
  0.15249659       0.33401432E-02  -0.34410942E-03   0.10844574E-04  -0.20081667E-02    0.0000000    
  0.17527956       0.33401432E-02  -0.50497178E-03   0.12197043E-04  -0.22911446E-02    0.0000000    
  0.20096730       0.33401432E-02  -0.70403766E-03   0.13248144E-04  -0.25210379E-02    0.0000000    
  0.22993014       0.33401432E-02  -0.94223905E-03   0.13961281E-04  -0.26540420E-02    0.0000000    
  0.26258565       0.33401432E-02  -0.12185212E-02   0.14190190E-04  -0.26441165E-02    0.0000000    
  0.29940464       0.33401432E-02  -0.15261135E-02   0.13926728E-04  -0.24146107E-02    0.0000000    
  0.34091793       0.33401432E-02  -0.18524481E-02   0.12882434E-04  -0.18950525E-02    0.0000000    
  0.38772404       0.33401432E-02  -0.21686505E-02   0.10763824E-04  -0.95494916E-03    0.0000000    
  0.44049778       0.33401432E-02  -0.24281127E-02   0.76431362E-05   0.48317968E-03    0.0000000    
  0.50000000       0.33401432E-02  -0.25455930E-02   0.12710099E-05   0.25542843E-02    0.0000000    
  0.55950222       0.33401432E-02  -0.24294656E-02  -0.61058263E-05   0.47925366E-02    0.0000000    
  0.61227596       0.33401432E-02  -0.21337418E-02  -0.11287711E-04   0.64550486E-02    0.0000000    
  0.65908207       0.33401432E-02  -0.17511969E-02  -0.15082846E-04   0.75466791E-02    0.0000000    
  0.70059536       0.33401432E-02  -0.13476585E-02  -0.16710671E-04   0.80455848E-02    0.0000000    
  0.73741435       0.33401432E-02  -0.97490610E-03  -0.16735169E-04   0.81019455E-02    0.0000000    
  0.77006986       0.33401432E-02  -0.65776871E-03  -0.15465249E-04   0.78447648E-02    0.0000000    
  0.79903270       0.33401432E-02  -0.40611599E-03  -0.13445428E-04   0.74129220E-02    0.0000000    
  0.82472044       0.33401432E-02  -0.21744080E-03  -0.11017660E-04   0.69038116E-02    0.0000000    
  0.84750341       0.33401432E-02  -0.84074196E-04  -0.84897784E-05   0.63890610E-02    0.0000000    
  0.86771010       0.33401432E-02   0.41827610E-05  -0.60425384E-05   0.59109880E-02    0.0000000    
  0.88563183       0.33401432E-02   0.57440650E-04  -0.38009422E-05   0.54929938E-02    0.0000000    
  0.90152697       0.33401432E-02   0.84845121E-04  -0.18322013E-05   0.51442053E-02    0.0000000    
  0.91562470       0.33401432E-02   0.94057492E-04  -0.17232978E-06   0.48650291E-02    0.0000000    
  0.92812826       0.33401432E-02   0.91231028E-04   0.11644992E-05   0.46505509E-02    0.0000000    
  0.93921793       0.33401432E-02   0.81121653E-04   0.21765765E-05   0.44930635E-02    0.0000000    
  0.94905358       0.33401432E-02   0.67288159E-04   0.28701198E-05   0.43836709E-02    0.0000000    
  0.95777702       0.33401432E-02   0.52300582E-04   0.32559579E-05   0.43132969E-02    0.0000000    
  0.96551402       0.33401432E-02   0.37935584E-04   0.33478848E-05   0.42732809E-02    0.0000000    
  0.97237612       0.33401432E-02   0.25343397E-04   0.31633320E-05   0.42556919E-02    0.0000000    
  0.97846226       0.33401432E-02   0.15186511E-04   0.27243399E-05   0.42534747E-02    0.0000000    
  0.98386018       0.33401432E-02   0.77437516E-05   0.20610733E-05   0.42604468E-02    0.0000000    
  0.98864770       0.33401432E-02   0.29558145E-05   0.12254832E-05   0.42711590E-02    0.0000000    
  0.99289386       0.33401432E-02   0.46929034E-06   0.34723382E-06   0.42811979E-02    0.0000000    
  0.99665986       0.33401432E-02  -0.24095783E-06  -0.24102564E-06   0.42881051E-02    0.0000000    
   1.0000000       0.33401432E-02    0.0000000        0.0000000       0.42905600E-02    0.0000000    
   0.0000000       0.71061441E-02    0.0000000        0.0000000      -0.48885078E-04    0.0000000    
  0.33401432E-02   0.71061441E-02   0.14356862E-05  -0.12200065E-05  -0.43516632E-04    0.0000000    
  0.71061441E-02   0.71061441E-02   0.49832855E-05  -0.40351151E-05  -0.37031225E-04    0.0000000    
  0.11352298E-01   0.71061441E-02   0.11475370E-04  -0.67271354E-05  -0.33879832E-04    0.0000000    
  0.16139824E-01   0.71061441E-02   0.21012545E-04  -0.84457816E-05  -0.36728564E-04    0.0000000    
  0.21537744E-01   0.71061441E-02   0.33009619E-04  -0.89468458E-05  -0.49528812E-04    0.0000000    
  0.27623881E-01   0.71061441E-02   0.46111713E-04  -0.81850291E-05  -0.77152419E-04    0.0000000    
  0.34485982E-01   0.71061441E-02   0.58127956E-04  -0.61698240E-05  -0.12473742E-03    0.0000000    
  0.42222980E-01   0.71061441E-02   0.65950761E-04  -0.29472967E-05  -0.19740175E-03    0.0000000    
  0.50946420E-01   0.71061441E-02   0.65450964E-04   0.13998388E-05  -0.29993307E-03    0.0000000    
  0.60782071E-01   0.71061441E-02   0.51380115E-04   0.67510503E-05  -0.43635133E-03    0.0000000    
  0.71871737E-01   0.71061441E-02   0.17309724E-04   0.12945242E-04  -0.60938983E-03    0.0000000    
  0.84375300E-01   0.71061441E-02  -0.44365627E-04   0.19780038E-04  -0.81975155E-03    0.0000000    
  0.98473029E-01   0.71061441E-02  -0.14231119E-03   0.27007305E-04  -0.10652615E-02    0.0000000    
  0.11436817       0.71061441E-02  -0.28601783E-03   0.34335536E-04  -0.13400357E-02    0.0000000    
  0.13228990       0.71061441E-02  -0.48532178E-03   0.41439962E-04  -0.16331941E-02    0.0000000    
  0.15249659       0.71061441E-02  -0.74989265E-03   0.47964360E-04  -0.19285922E-02    0.0000000    
  0.17527956       0.71061441E-02  -0.10880972E-02   0.53570063E-04  -0.22022246E-02    0.0000000    
  0.20096730       0.71061441E-02  -0.15064907E-02   0.57867366E-04  -0.24248137E-02    0.0000000    
  0.22993014       0.71061441E-02  -0.20071911E-02   0.60588049E-04  -0.25531875E-02    0.0000000    
  0.26258565       0.71061441E-02  -0.25878425E-02   0.61198706E-04  -0.25419923E-02    0.0000000    
  0.29940464       0.71061441E-02  -0.32342029E-02   0.59373519E-04  -0.23154159E-02    0.0000000    
  0.34091793       0.71061441E-02  -0.39193281E-02   0.53992390E-04  -0.18046519E-02    0.0000000    
  0.38772404       0.71061441E-02  -0.45823972E-02   0.43814016E-04  -0.88088792E-03    0.0000000    
  0.44049778       0.71061441E-02  -0.51247729E-02   0.27825113E-04   0.53009028E-03    0.0000000    
  0.50000000       0.71061441E-02  -0.53683746E-02   0.11693183E-05   0.25578686E-02    0.0000000    
  0.55950222       0.71061441E-02  -0.51234056E-02  -0.28134347E-04   0.47468063E-02    0.0000000    
  0.61227596       0.71061441E-02  -0.45035356E-02  -0.50063839E-04   0.63706996E-02    0.0000000    
  0.65908207       0.71061441E-02  -0.37023437E-02  -0.65150916E-04   0.74371526E-02    0.0000000    
  0.70059536       0.71061441E-02  -0.28580192E-02  -0.71688673E-04   0.79241489E-02    0.0000000    
  0.73741435       0.71061441E-02  -0.20779764E-02  -0.71362751E-04   0.79809436E-02    0.0000000    
  0.77006986       0.71061441E-02  -0.14139959E-02  -0.65837879E-04   0.77325725E-02    0.0000000    
  0.79903270       0.71061441E-02  -0.88640517E-03  -0.57164392E-04   0.73151605E-02    0.0000000    
  0.82472044       0.71061441E-02  -0.49000626E-03  -0.46878291E-04   0.68230907E-02    0.0000000    
  0.84750341       0.71061441E-02  -0.20876809E-03  -0.36196909E-04   0.63261501E-02    0.0000000    
  0.86771010       0.71061441E-02  -0.21465749E-04  -0.25905134E-04   0.58652033E-02    0.0000000    
  0.88563183       0.71061441E-02   0.92966995E-04  -0.16509871E-04   0.54628455E-02    0.0000000    
  0.90152697       0.71061441E-02   0.15356633E-03  -0.82948954E-05   0.51276850E-02    0.0000000    
  0.91562470       0.71061441E-02   0.17627433E-03  -0.14041318E-05   0.48599094E-02    0.0000000    
  0.92812826       0.71061441E-02   0.17387723E-03   0.41110058E-05   0.46545137E-02    0.0000000    
  0.93921793       0.71061441E-02   0.15623655E-03   0.82566497E-05   0.45038220E-02    0.0000000    
  0.94905358       0.71061441E-02   0.13070352E-03   0.11074261E-04   0.43990310E-02    0.0000000    
  0.95777702       0.71061441E-02   0.10255332E-03   0.12629426E-04   0.43312053E-02    0.0000000    
  0.96551402       0.71061441E-02   0.75391257E-04   0.13007285E-04   0.42918794E-02    0.0000000    
  0.97237612       0.71061441E-02   0.51502836E-04   0.12313655E-04   0.42733619E-02    0.0000000    
  0.97846226       0.71061441E-02   0.32143199E-04   0.10685413E-04   0.42689174E-02    0.0000000    
  0.98386018       0.71061441E-02   0.17759867E-04   0.83107121E-05   0.42728193E-02    0.0000000    
  0.98864770       0.71061441E-02   0.81378029E-05   0.54673725E-05   0.42803048E-02    0.0000000    
  0.99289386       0.71061441E-02   0.26049933E-05   0.26058376E-05   0.42881040E-02    0.0000000    
  0.99665986       0.71061441E-02   0.34686391E-06   0.46888129E-06   0.42950123E-02    0.0000000    
   1.0000000       0.71061441E-02    0.0000000        0.0000000       0.42982259E-02    0.0000000    
   0.0000000       0.11352298E-01    0.0000000        0.0000000      -0.57233574E-04    0.0000000    
  0.33401432E-02   0.11352298E-01   0.18964288E-05  -0.50625903E-05  -0.49287922E-04    0.0000000    
  0.71061441E-02   0.11352298E-01   0.71803180E-05  -0.10779038E-04  -0.40581228E-04    0.0000000    
  0.11352298E-01   0.11352298E-01   0.16363651E-04  -0.15825997E-04  -0.37266521E-04    0.0000000    
  0.16139824E-01   0.11352298E-01   0.29093963E-04  -0.19076580E-04  -0.40673981E-04    0.0000000    
  0.21537744E-01   0.11352298E-01   0.44504416E-04  -0.19839899E-04  -0.53672199E-04    0.0000000    
  0.27623881E-01   0.11352298E-01   0.60760507E-04  -0.17760117E-04  -0.80431030E-04    0.0000000    
  0.34485982E-01   0.11352298E-01   0.74754044E-04  -0.12700707E-04  -0.12565969E-03    0.0000000    
  0.42222980E-01   0.11352298E-01   0.81912923E-04  -0.46789381E-05  -0.19424782E-03    0.0000000    
  0.50946420E-01   0.11352298E-01   0.76022392E-04   0.61616581E-05  -0.29090553E-03    0.0000000    
  0.60782071E-01   0.11352298E-01   0.49062733E-04   0.19562173E-04  -0.41972956E-03    0.0000000    
  0.71871737E-01   0.11352298E-01  -0.88931697E-05   0.35145144E-04  -0.58359801E-03    0.0000000    
  0.84375300E-01   0.11352298E-01  -0.10968018E-03   0.52411268E-04  -0.78349858E-03    0.0000000    
  0.98473029E-01   0.11352298E-01  -0.26687151E-03   0.70738811E-04  -0.10176462E-02    0.0000000    
  0.11436817       0.11352298E-01  -0.49540676E-03   0.89386238E-04  -0.12806051E-02    0.0000000    
  0.13228990       0.11352298E-01  -0.81086445E-03   0.10751707E-03  -0.15620759E-02    0.0000000    
  0.15249659       0.11352298E-01  -0.12285989E-02   0.12421443E-03  -0.18464914E-02    0.0000000    
  0.17527956       0.11352298E-01  -0.17620330E-02   0.13857343E-03  -0.21105607E-02    0.0000000    
  0.20096730       0.11352298E-01  -0.24216194E-02   0.14960667E-03  -0.23255844E-02    0.0000000    
  0.22993014       0.11352298E-01  -0.32109525E-02   0.15650655E-03  -0.24491784E-02    0.0000000    
  0.26258565       0.11352298E-01  -0.41261037E-02   0.15798653E-03  -0.24366296E-02    0.0000000    
  0.29940464       0.11352298E-01  -0.51445941E-02   0.15294808E-03  -0.22131534E-02    0.0000000    
  0.34091793       0.11352298E-01  -0.62230832E-02   0.13866232E-03  -0.17115173E-02    0.0000000    
  0.38772404       0.11352298E-01  -0.72654617E-02   0.11198685E-03  -0.80484903E-03    0.0000000    
  0.44049778       0.11352298E-01  -0.81152066E-02   0.69250560E-04   0.57829645E-03    0.0000000    
  0.50000000       0.11352298E-01  -0.84934532E-02   0.18933357E-05   0.25609593E-02    0.0000000    
  0.55950222       0.11352298E-01  -0.81058417E-02  -0.71922213E-04   0.46981583E-02    0.0000000    
  0.61227596       0.11352298E-01  -0.71318191E-02  -0.12912019E-03   0.62829066E-02    0.0000000    
  0.65908207       0.11352298E-01  -0.58740343E-02  -0.16775940E-03   0.73242657E-02    0.0000000    
  0.70059536       0.11352298E-01  -0.45498661E-02  -0.18500819E-03   0.77996131E-02    0.0000000    
  0.73741435       0.11352298E-01  -0.33262424E-02  -0.18439566E-03   0.78572778E-02    0.0000000    
  0.77006986       0.11352298E-01  -0.22840399E-02  -0.17051973E-03   0.76180391E-02    0.0000000    
  0.79903270       0.11352298E-01  -0.14546248E-02  -0.14841633E-03   0.72152949E-02    0.0000000    
  0.82472044       0.11352298E-01  -0.82992337E-03  -0.12215125E-03   0.67403649E-02    0.0000000    
  0.84750341       0.11352298E-01  -0.38484688E-03  -0.94811251E-04   0.62612246E-02    0.0000000    
  0.86771010       0.11352298E-01  -0.86314494E-04  -0.68463626E-04   0.58172845E-02    0.0000000    
  0.88563183       0.11352298E-01   0.98540244E-04  -0.44415402E-04   0.54303386E-02    0.0000000    
  0.90152697       0.11352298E-01   0.19938583E-03  -0.23412054E-04   0.51085023E-02    0.0000000    
  0.91562470       0.11352298E-01   0.24105511E-03  -0.58230703E-05   0.48517393E-02    0.0000000    
  0.92812826       0.11352298E-01   0.24343164E-03   0.82264848E-05   0.46549921E-02    0.0000000    
  0.93921793       0.11352298E-01   0.22181091E-03   0.18767681E-04   0.45106355E-02    0.0000000    
  0.94905358       0.11352298E-01   0.18754458E-03   0.25933438E-04   0.44100022E-02    0.0000000    
  0.95777702       0.11352298E-01   0.14872093E-03   0.29928278E-04   0.43443776E-02    0.0000000    
  0.96551402       0.11352298E-01   0.11080407E-03   0.31017555E-04   0.43055620E-02    0.0000000    
  0.97237612       0.11352298E-01   0.77190356E-04   0.29531823E-04   0.42862288E-02    0.0000000    
  0.97846226       0.11352298E-01   0.49679248E-04   0.25885897E-04   0.42801146E-02    0.0000000    
  0.98386018       0.11352298E-01   0.28854462E-04   0.20611569E-04   0.42820781E-02    0.0000000    
  0.98864770       0.11352298E-01   0.14389096E-04   0.14397425E-04   0.42880972E-02    0.0000000    
  0.99289386       0.11352298E-01   0.54615253E-05   0.81368417E-05   0.42959037E-02    0.0000000    
  0.99665986       0.11352298E-01   0.12233515E-05   0.29528108E-05   0.43050484E-02    0.0000000    
   1.0000000       0.11352298E-01    0.0000000        0.0000000       0.43104166E-02    0.0000000    
   0.0000000       0.16139824E-01    0.0000000        0.0000000      -0.57521768E-04    0.0000000    
  0.33401432E-02   0.16139824E-01   0.23133348E-05  -0.10621310E-04  -0.48506217E-04    0.0000000    
  0.71061441E-02   0.16139824E-01   0.86450126E-05  -0.20560107E-04  -0.38325087E-04    0.0000000    
  0.11352298E-01   0.16139824E-01   0.19442625E-04  -0.28607867E-04  -0.34328076E-04    0.0000000    
  0.16139824E-01   0.16139824E-01   0.33900579E-04  -0.33463232E-04  -0.37587369E-04    0.0000000    
  0.21537744E-01   0.16139824E-01   0.50687881E-04  -0.34030454E-04  -0.50404401E-04    0.0000000    
  0.27623881E-01   0.16139824E-01   0.67379737E-04  -0.29535061E-04  -0.76324135E-04    0.0000000    
  0.34485982E-01   0.16139824E-01   0.79951188E-04  -0.19537526E-04  -0.11951502E-03    0.0000000    
  0.42222980E-01   0.16139824E-01   0.82410570E-04  -0.39049137E-05  -0.18451132E-03    0.0000000    
  0.50946420E-01   0.16139824E-01   0.66479252E-04   0.17218129E-04  -0.27583050E-03    0.0000000    
  0.60782071E-01   0.16139824E-01   0.21326126E-04   0.43420904E-04  -0.39752666E-03    0.0000000    
  0.71871737E-01   0.16139824E-01  -0.66605939E-04   0.74028985E-04  -0.55258923E-03    0.0000000    
  0.84375300E-01   0.16139824E-01  -0.21361932E-03   0.10809831E-03  -0.74223107E-03    0.0000000    
  0.98473029E-01   0.16139824E-01  -0.43854772E-03   0.14441601E-03  -0.96502824E-03    0.0000000    
  0.11436817       0.16139824E-01  -0.76224355E-03   0.18151384E-03  -0.12160090E-02    0.0000000    
  0.13228990       0.16139824E-01  -0.12065942E-02   0.21771174E-03  -0.14854849E-02    0.0000000    
  0.15249659       0.16139824E-01  -0.17932500E-02   0.25116214E-03  -0.17584954E-02    0.0000000    
  0.17527956       0.16139824E-01  -0.25413294E-02   0.27999477E-03  -0.20125662E-02    0.0000000    
  0.20096730       0.16139824E-01  -0.34656559E-02   0.30221773E-03  -0.22195978E-02    0.0000000    
  0.22993014       0.16139824E-01  -0.45716238E-02   0.31605518E-03  -0.23382125E-02    0.0000000    
  0.26258565       0.16139824E-01  -0.58534379E-02   0.31897972E-03  -0.23243047E-02    0.0000000    
  0.29940464       0.16139824E-01  -0.72795493E-02   0.30849781E-03  -0.21044510E-02    0.0000000    
  0.34091793       0.16139824E-01  -0.87879876E-02   0.27928077E-03  -0.16128851E-02    0.0000000    
  0.38772404       0.16139824E-01  -0.10243730E-01   0.22502274E-03  -0.72504670E-03    0.0000000    
  0.44049778       0.16139824E-01  -0.11426127E-01   0.13752334E-03   0.62783611E-03    0.0000000    
  0.50000000       0.16139824E-01  -0.11947307E-01   0.30855695E-05   0.25623228E-02    0.0000000    
  0.55950222       0.16139824E-01  -0.11402203E-01  -0.14434685E-03   0.46449654E-02    0.0000000    
  0.61227596       0.16139824E-01  -0.10042610E-01  -0.26036918E-03   0.61892824E-02    0.0000000    
  0.65908207       0.16139824E-01  -0.82886968E-02  -0.33794866E-03   0.72049342E-02    0.0000000    
  0.70059536       0.16139824E-01  -0.64440537E-02  -0.37307433E-03   0.76686381E-02    0.0000000    
  0.73741435       0.16139824E-01  -0.47389690E-02  -0.37211306E-03   0.77274100E-02    0.0000000    
  0.77006986       0.16139824E-01  -0.32855639E-02  -0.34462479E-03   0.74977137E-02    0.0000000    
  0.79903270       0.16139824E-01  -0.21268090E-02  -0.30051784E-03   0.71100326E-02    0.0000000    
  0.82472044       0.16139824E-01  -0.12515839E-02  -0.24806116E-03   0.66526331E-02    0.0000000    
  0.84750341       0.16139824E-01  -0.62506148E-03  -0.19341815E-03   0.61915844E-02    0.0000000    
  0.86771010       0.16139824E-01  -0.20149586E-03  -0.14078048E-03   0.57648437E-02    0.0000000    
  0.88563183       0.16139824E-01   0.64603259E-04  -0.92777112E-04   0.53933810E-02    0.0000000    
  0.90152697       0.16139824E-01   0.21425376E-03  -0.50911584E-04   0.50848154E-02    0.0000000    
  0.91562470       0.16139824E-01   0.28176210E-03  -0.15917170E-04   0.48389044E-02    0.0000000    
  0.92812826       0.16139824E-01   0.29454222E-03   0.11977458E-04   0.46505524E-02    0.0000000    
  0.93921793       0.16139824E-01   0.27361923E-03   0.32873068E-04   0.45122402E-02    0.0000000    
  0.94905358       0.16139824E-01   0.23452314E-03   0.47090098E-04   0.44155104E-02    0.0000000    
  0.95777702       0.16139824E-01   0.18824139E-03   0.55110267E-04   0.43519263E-02    0.0000000    
  0.96551402       0.16139824E-01   0.14212216E-03   0.57550763E-04   0.43136708E-02    0.0000000    
  0.97237612       0.16139824E-01   0.10067334E-03   0.55163833E-04   0.42938830E-02    0.0000000    
  0.97846226       0.16139824E-01   0.66254148E-04   0.48850828E-04   0.42868550E-02    0.0000000    
  0.98386018       0.16139824E-01   0.39655587E-04   0.39675844E-04   0.42880565E-02    0.0000000    
  0.98864770       0.16139824E-01   0.20592005E-04   0.28860661E-04   0.42941027E-02    0.0000000    
  0.99289386       0.16139824E-01   0.82973107E-05   0.17750972E-04   0.43033957E-02    0.0000000    
  0.99665986       0.16139824E-01   0.20556309E-05   0.77328543E-05   0.43157708E-02    0.0000000    
   1.0000000       0.16139824E-01    0.0000000        0.0000000       0.43237831E-02    0.0000000    
   0.0000000       0.21537744E-01    0.0000000        0.0000000      -0.45413183E-04    0.0000000    
  0.33401432E-02   0.21537744E-01   0.24998774E-05  -0.17598281E-04  -0.36439825E-04    0.0000000    
  0.71061441E-02   0.21537744E-01   0.90732388E-05  -0.32762889E-04  -0.25812469E-04    0.0000000    
  0.11352298E-01   0.21537744E-01   0.20119794E-04  -0.44170061E-04  -0.21597318E-04    0.0000000    
  0.16139824E-01   0.21537744E-01   0.34433084E-04  -0.50300017E-04  -0.24911305E-04    0.0000000    
  0.21537744E-01   0.21537744E-01   0.50117391E-04  -0.49672528E-04  -0.37709106E-04    0.0000000    
  0.27623881E-01   0.21537744E-01   0.64026410E-04  -0.41042774E-04  -0.63068254E-04    0.0000000    
  0.34485982E-01   0.21537744E-01   0.71138921E-04  -0.23534612E-04  -0.10467483E-03    0.0000000    
  0.42222980E-01   0.21537744E-01   0.64025392E-04   0.32860120E-05  -0.16663172E-03    0.0000000    
  0.50946420E-01   0.21537744E-01   0.32350357E-04   0.39380910E-04  -0.25317959E-03    0.0000000    
  0.60782071E-01   0.21537744E-01  -0.37549088E-04   0.84224727E-04  -0.36823693E-03    0.0000000    
  0.71871737E-01   0.21537744E-01  -0.16294636E-03   0.13679087E-03  -0.51481802E-03    0.0000000    
  0.84375300E-01   0.21537744E-01  -0.36479910E-03   0.19554233E-03  -0.69431687E-03    0.0000000    
  0.98473029E-01   0.21537744E-01  -0.66750988E-03   0.25843252E-03  -0.90564156E-03    0.0000000    
  0.11436817       0.21537744E-01  -0.10982779E-02   0.32293191E-03  -0.11442984E-02    0.0000000    
  0.13228990       0.21537744E-01  -0.16858545E-02   0.38610110E-03  -0.14012281E-02    0.0000000    
  0.15249659       0.21537744E-01  -0.24588107E-02   0.44468306E-03  -0.16621417E-02    0.0000000    
  0.17527956       0.21537744E-01  -0.34426264E-02   0.49531344E-03  -0.19054963E-02    0.0000000    
  0.20096730       0.21537744E-01  -0.46570100E-02   0.53444925E-03  -0.21038573E-02    0.0000000    
  0.22993014       0.21537744E-01  -0.61095054E-02   0.55874977E-03  -0.22170983E-02    0.0000000    
  0.26258565       0.21537744E-01  -0.77921389E-02   0.56378695E-03  -0.22017219E-02    0.0000000    
  0.29940464       0.21537744E-01  -0.96633868E-02   0.54480426E-03  -0.19860771E-02    0.0000000    
  0.34091793       0.21537744E-01  -0.11640210E-01   0.49260183E-03  -0.15057620E-02    0.0000000    
  0.38772404       0.21537744E-01  -0.13544762E-01   0.39602426E-03  -0.63893213E-03    0.0000000    
  0.44049778       0.21537744E-01  -0.15085702E-01   0.24004120E-03   0.68039909E-03    0.0000000    
  0.50000000       0.21537744E-01  -0.15757743E-01   0.41908335E-05   0.25627913E-02    0.0000000    
  0.55950222       0.21537744E-01  -0.15039318E-01  -0.25447445E-03   0.45870465E-02    0.0000000    
  0.61227596       0.21537744E-01  -0.13261573E-01  -0.45956277E-03   0.60882069E-02    0.0000000    
  0.65908207       0.21537744E-01  -0.10970748E-01  -0.59574426E-03   0.70763472E-02    0.0000000    
  0.70059536       0.21537744E-01  -0.85637326E-02  -0.65784371E-03   0.75277032E-02    0.0000000    
  0.73741435       0.21537744E-01  -0.63379286E-02  -0.65645405E-03   0.75873662E-02    0.0000000    
  0.77006986       0.21537744E-01  -0.44388299E-02  -0.60867449E-03   0.73675519E-02    0.0000000    
  0.79903270       0.21537744E-01  -0.29215588E-02  -0.53171772E-03   0.69954572E-02    0.0000000    
  0.82472044       0.21537744E-01  -0.17718129E-02  -0.44016575E-03   0.65562690E-02    0.0000000    
  0.84750341       0.21537744E-01  -0.94438445E-03  -0.34479987E-03   0.61139601E-02    0.0000000    
  0.86771010       0.21537744E-01  -0.38010365E-03  -0.25299955E-03   0.57049961E-02    0.0000000    
  0.88563183       0.21537744E-01  -0.20081074E-04  -0.16937454E-03   0.53494424E-02    0.0000000    
  0.90152697       0.21537744E-01   0.18871797E-03  -0.96553945E-04   0.50544134E-02    0.0000000    