# vtk DataFile Version 3.0
      Instananeous Variables Output
ASCII
DATASET UNSTRUCTURED_GRID
POINTS       2601 double
  0.000000000000000E+000  0.000000000000000E+000  0.000000000000000E+000
  3.340143200000000E-003  0.000000000000000E+000  0.000000000000000E+000
  7.106144100000000E-003  0.000000000000000E+000  0.000000000000000E+000
  1.135229800000000E-002  0.000000000000000E+000  0.000000000000000E+000
  1.613982400000000E-002  0.000000000000000E+000  0.000000000000000E+000
  2.153774400000000E-002  0.000000000000000E+000  0.000000000000000E+000
  2.762388100000000E-002  0.000000000000000E+000  0.000000000000000E+000
  3.448598200000000E-002  0.000000000000000E+000  0.000000000000000E+000
  4.222298000000000E-002  0.000000000000000E+000  0.000000000000000E+000
  5.094642000000000E-002  0.000000000000000E+000  0.000000000000000E+000
  6.078207100000000E-002  0.000000000000000E+000  0.000000000000000E+000
  7.187173700000000E-002  0.000000000000000E+000  0.000000000000000E+000
  8.437530000000000E-002  0.000000000000000E+000  0.000000000000000E+000
  9.847302900000000E-002  0.000000000000000E+000  0.000000000000000E+000
  0.114368170000000       0.000000000000000E+000  0.000000000000000E+000
  0.132289900000000       0.000000000000000E+000  0.000000000000000E+000
  0.152496590000000       0.000000000000000E+000  0.000000000000000E+000
  0.175279560000000       0.000000000000000E+000  0.000000000000000E+000
  0.200967300000000       0.000000000000000E+000  0.000000000000000E+000
  0.229930140000000       0.000000000000000E+000  0.000000000000000E+000
  0.262585650000000       0.000000000000000E+000  0.000000000000000E+000
  0.299404640000000       0.000000000000000E+000  0.000000000000000E+000
  0.340917930000000       0.000000000000000E+000  0.000000000000000E+000
  0.387724040000000       0.000000000000000E+000  0.000000000000000E+000
  0.440497780000000       0.000000000000000E+000  0.000000000000000E+000
  0.500000000000000       0.000000000000000E+000  0.000000000000000E+000
  0.559502220000000       0.000000000000000E+000  0.000000000000000E+000
  0.612275960000000       0.000000000000000E+000  0.000000000000000E+000
  0.659082070000000       0.000000000000000E+000  0.000000000000000E+000
  0.700595360000000       0.000000000000000E+000  0.000000000000000E+000
  0.737414350000000       0.000000000000000E+000  0.000000000000000E+000
  0.770069860000000       0.000000000000000E+000  0.000000000000000E+000
  0.799032700000000       0.000000000000000E+000  0.000000000000000E+000
  0.824720440000000       0.000000000000000E+000  0.000000000000000E+000
  0.847503410000000       0.000000000000000E+000  0.000000000000000E+000
  0.867710100000000       0.000000000000000E+000  0.000000000000000E+000
  0.885631830000000       0.000000000000000E+000  0.000000000000000E+000
  0.901526970000000       0.000000000000000E+000  0.000000000000000E+000
  0.915624700000000       0.000000000000000E+000  0.000000000000000E+000
  0.928128260000000       0.000000000000000E+000  0.000000000000000E+000
  0.939217930000000       0.000000000000000E+000  0.000000000000000E+000
  0.949053580000000       0.000000000000000E+000  0.000000000000000E+000
  0.957777020000000       0.000000000000000E+000  0.000000000000000E+000
  0.965514020000000       0.000000000000000E+000  0.000000000000000E+000
  0.972376120000000       0.000000000000000E+000  0.000000000000000E+000
  0.978462260000000       0.000000000000000E+000  0.000000000000000E+000
  0.983860180000000       0.000000000000000E+000  0.000000000000000E+000
  0.988647700000000       0.000000000000000E+000  0.000000000000000E+000
  0.992893860000000       0.000000000000000E+000  0.000000000000000E+000
  0.996659860000000       0.000000000000000E+000  0.000000000000000E+000
   1.00000000000000       0.000000000000000E+000  0.000000000000000E+000
  0.000000000000000E+000  3.340143200000000E-003  0.000000000000000E+000
  3.340143200000000E-003  3.340143200000000E-003  0.000000000000000E+000
  7.106144100000000E-003  3.340143200000000E-003  0.000000000000000E+000
  1.135229800000000E-002  3.340143200000000E-003  0.000000000000000E+000
  1.613982400000000E-002  3.340143200000000E-003  0.000000000000000E+000
  2.153774400000000E-002  3.340143200000000E-003  0.000000000000000E+000
  2.762388100000000E-002  3.340143200000000E-003  0.000000000000000E+000
  3.448598200000000E-002  3.340143200000000E-003  0.000000000000000E+000
  4.222298000000000E-002  3.340143200000000E-003  0.000000000000000E+000
  5.094642000000000E-002  3.340143200000000E-003  0.000000000000000E+000
  6.078207100000000E-002  3.340143200000000E-003  0.000000000000000E+000
  7.187173700000000E-002  3.340143200000000E-003  0.000000000000000E+000
  8.437530000000000E-002  3.340143200000000E-003  0.000000000000000E+000
  9.847302900000000E-002  3.340143200000000E-003  0.000000000000000E+000
  0.114368170000000       3.340143200000000E-003  0.000000000000000E+000
  0.132289900000000       3.340143200000000E-003  0.000000000000000E+000
  0.152496590000000       3.340143200000000E-003  0.000000000000000E+000
  0.175279560000000       3.340143200000000E-003  0.000000000000000E+000
  0.200967300000000       3.340143200000000E-003  0.000000000000000E+000
  0.229930140000000       3.340143200000000E-003  0.000000000000000E+000
  0.262585650000000       3.340143200000000E-003  0.000000000000000E+000
  0.299404640000000       3.340143200000000E-003  0.000000000000000E+000
  0.340917930000000       3.340143200000000E-003  0.000000000000000E+000
  0.387724040000000       3.340143200000000E-003  0.000000000000000E+000
  0.440497780000000       3.340143200000000E-003  0.000000000000000E+000
  0.500000000000000       3.340143200000000E-003  0.000000000000000E+000
  0.559502220000000       3.340143200000000E-003  0.000000000000000E+000
  0.612275960000000       3.340143200000000E-003  0.000000000000000E+000
  0.659082070000000       3.340143200000000E-003  0.000000000000000E+000
  0.700595360000000       3.340143200000000E-003  0.000000000000000E+000
  0.737414350000000       3.340143200000000E-003  0.000000000000000E+000
  0.770069860000000       3.340143200000000E-003  0.000000000000000E+000
  0.799032700000000       3.340143200000000E-003  0.000000000000000E+000
  0.824720440000000       3.340143200000000E-003  0.000000000000000E+000
  0.847503410000000       3.340143200000000E-003  0.000000000000000E+000
  0.867710100000000       3.340143200000000E-003  0.000000000000000E+000
  0.885631830000000       3.340143200000000E-003  0.000000000000000E+000
  0.901526970000000       3.340143200000000E-003  0.000000000000000E+000
  0.915624700000000       3.340143200000000E-003  0.000000000000000E+000
  0.928128260000000       3.340143200000000E-003  0.000000000000000E+000
  0.939217930000000       3.340143200000000E-003  0.000000000000000E+000
  0.949053580000000       3.340143200000000E-003  0.000000000000000E+000
  0.957777020000000       3.340143200000000E-003  0.000000000000000E+000
  0.965514020000000       3.340143200000000E-003  0.000000000000000E+000
  0.972376120000000       3.340143200000000E-003  0.000000000000000E+000
  0.978462260000000       3.340143200000000E-003  0.000000000000000E+000
  0.983860180000000       3.340143200000000E-003  0.000000000000000E+000
  0.988647700000000       3.340143200000000E-003  0.000000000000000E+000
  0.992893860000000       3.340143200000000E-003  0.000000000000000E+000
  0.996659860000000       3.340143200000000E-003  0.000000000000000E+000
   1.00000000000000       3.340143200000000E-003  0.000000000000000E+000
  0.000000000000000E+000  7.106144100000000E-003  0.000000000000000E+000
  3.340143200000000E-003  7.106144100000000E-003  0.000000000000000E+000
  7.106144100000000E-003  7.106144100000000E-003  0.000000000000000E+000
  1.135229800000000E-002  7.106144100000000E-003  0.000000000000000E+000
  1.613982400000000E-002  7.106144100000000E-003  0.000000000000000E+000
  2.153774400000000E-002  7.106144100000000E-003  0.000000000000000E+000
  2.762388100000000E-002  7.106144100000000E-003  0.000000000000000E+000
  3.448598200000000E-002  7.106144100000000E-003  0.000000000000000E+000
  4.222298000000000E-002  7.106144100000000E-003  0.000000000000000E+000
  5.094642000000000E-002  7.106144100000000E-003  0.000000000000000E+000
  6.078207100000000E-002  7.106144100000000E-003  0.000000000000000E+000
  7.187173700000000E-002  7.106144100000000E-003  0.000000000000000E+000
  8.437530000000000E-002  7.106144100000000E-003  0.000000000000000E+000
  9.847302900000000E-002  7.106144100000000E-003  0.000000000000000E+000
  0.114368170000000       7.106144100000000E-003  0.000000000000000E+000
  0.132289900000000       7.106144100000000E-003  0.000000000000000E+000
  0.152496590000000       7.106144100000000E-003  0.000000000000000E+000
  0.175279560000000       7.106144100000000E-003  0.000000000000000E+000
  0.200967300000000       7.106144100000000E-003  0.000000000000000E+000
  0.229930140000000       7.106144100000000E-003  0.000000000000000E+000
  0.262585650000000       7.106144100000000E-003  0.000000000000000E+000
  0.299404640000000       7.106144100000000E-003  0.000000000000000E+000
  0.340917930000000       7.106144100000000E-003  0.000000000000000E+000
  0.387724040000000       7.106144100000000E-003  0.000000000000000E+000
  0.440497780000000       7.106144100000000E-003  0.000000000000000E+000
  0.500000000000000       7.106144100000000E-003  0.000000000000000E+000
  0.559502220000000       7.106144100000000E-003  0.000000000000000E+000
  0.612275960000000       7.106144100000000E-003  0.000000000000000E+000
  0.659082070000000       7.106144100000000E-003  0.000000000000000E+000
  0.700595360000000       7.106144100000000E-003  0.000000000000000E+000
  0.737414350000000       7.106144100000000E-003  0.000000000000000E+000
  0.770069860000000       7.106144100000000E-003  0.000000000000000E+000
  0.799032700000000       7.106144100000000E-003  0.000000000000000E+000
[...]
POINT_DATA       2601
 VECTORS velocity float 
  0.000000000000000E+000  0.000000000000000E+000  0.000000000000000E+000
  0.000000000000000E+000  0.000000000000000E+000  0.000000000000000E+000
  0.000000000000000E+000  0.000000000000000E+000  0.000000000000000E+000
  0.000000000000000E+000  0.000000000000000E+000  0.000000000000000E+000
  0.000000000000000E+000  0.000000000000000E+000  0.000000000000000E+000
  0.000000000000000E+000  0.000000000000000E+000  0.000000000000000E+000
  0.000000000000000E+000  0.000000000000000E+000  0.000000000000000E+000
  0.000000000000000E+000  0.000000000000000E+000  0.000000000000000E+000
  0.000000000000000E+000  0.000000000000000E+000  0.000000000000000E+000
  0.000000000000000E+000  0.000000000000000E+000  0.000000000000000E+000
  0.000000000000000E+000  0.000000000000000E+000  0.000000000000000E+000
  0.000000000000000E+000  0.000000000000000E+000  0.000000000000000E+000
  0.000000000000000E+000  0.000000000000000E+000  0.000000000000000E+000
  0.000000000000000E+000  0.000000000000000E+000  0.000000000000000E+000
  0.000000000000000E+000  0.000000000000000E+000  0.000000000000000E+000
  0.000000000000000E+000  0.000000000000000E+000  0.000000000000000E+000
  0.000000000000000E+000  0.000000000000000E+000  0.000000000000000E+000
  0.000000000000000E+000  0.000000000000000E+000  0.000000000000000E+000
  0.000000000000000E+000  0.000000000000000E+000  0.000000000000000E+000
  0.000000000000000E+000  0.000000000000000E+000  0.000000000000000E+000
  0.000000000000000E+000  0.000000000000000E+000  0.000000000000000E+000
  0.000000000000000E+000  0.000000000000000E+000  0.000000000000000E+000
  0.000000000000000E+000  0.000000000000000E+000  0.000000000000000E+000
  0.000000000000000E+000  0.000000000000000E+000  0.000000000000000E+000
  0.000000000000000E+000  0.000000000000000E+000  0.000000000000000E+000
  0.000000000000000E+000  0.000000000000000E+000  0.000000000000000E+000
  0.000000000000000E+000  0.000000000000000E+000  0.000000000000000E+000
  0.000000000000000E+000  0.000000000000000E+000  0.000000000000000E+000
  0.000000000000000E+000  0.000000000000000E+000  0.000000000000000E+000
  0.000000000000000E+000  0.000000000000000E+000  0.000000000000000E+000
  0.000000000000000E+000  0.000000000000000E+000  0.000000000000000E+000
  0.000000000000000E+000  0.000000000000000E+000  0.000000000000000E+000
  0.000000000000000E+000  0.000000000000000E+000  0.000000000000000E+000
  0.000000000000000E+000  0.000000000000000E+000  0.000000000000000E+000
  0.000000000000000E+000  0.000000000000000E+000  0.000000000000000E+000
  0.000000000000000E+000  0.000000000000000E+000  0.000000000000000E+000
  0.000000000000000E+000  0.000000000000000E+000  0.000000000000000E+000
  0.000000000000000E+000  0.000000000000000E+000  0.000000000000000E+000
  0.000000000000000E+000  0.000000000000000E+000  0.000000000000000E+000
  0.000000000000000E+000  0.000000000000000E+000  0.000000000000000E+000
  0.000000000000000E+000  0.000000000000000E+000  0.000000000000000E+000
  0.000000000000000E+000  0.000000000000000E+000  0.000000000000000E+000
  0.000000000000000E+000  0.000000000000000E+000  0.000000000000000E+000
  0.000000000000000E+000  0.000000000000000E+000  0.000000000000000E+000
  0.000000000000000E+000  0.000000000000000E+000  0.000000000000000E+000
  0.000000000000000E+000  0.000000000000000E+000  0.000000000000000E+000
  0.000000000000000E+000  0.000000000000000E+000  0.000000000000000E+000
  0.000000000000000E+000  0.000000000000000E+000  0.000000000000000E+000
  0.000000000000000E+000  0.000000000000000E+000  0.000000000000000E+000
  0.000000000000000E+000  0.000000000000000E+000  0.000000000000000E+000
  0.000000000000000E+000  0.000000000000000E+000  0.000000000000000E+000
  0.000000000000000E+000  0.000000000000000E+000  0.000000000000000E+000
  1.087622658715900E-006  7.142480778168135E-007  0.000000000000000E+000
  2.455131829893334E-006 -5.211240095127738E-007  0.000000000000000E+000
  5.653678521503420E-006 -1.613538319351761E-006  0.000000000000000E+000
  1.089389548421289E-005 -2.243275089632081E-006  0.000000000000000E+000
  1.772032748245481E-005 -2.470188638467318E-006  0.000000000000000E+000
  2.530887171871851E-005 -2.351476608568463E-006  0.000000000000000E+000
  3.249090776199191E-005 -1.913265359973253E-006  0.000000000000000E+000
  3.769386516225449E-005 -1.175734578849431E-006  0.000000000000000E+000
  3.887629671505705E-005 -1.637950052452765E-007  0.000000000000000E+000
  3.347857345157505E-005  1.090682070718326E-006  0.000000000000000E+000
  1.839332561014035E-005  2.548123383560648E-006  0.000000000000000E+000
 -1.003145396802131E-005  4.159615089045087E-006  0.000000000000000E+000
 -5.593371669213087E-005  5.866373884712089E-006  0.000000000000000E+000
 -1.238275001787217E-004  7.600885703646472E-006  0.000000000000000E+000
 -2.183643428525499E-004  9.288070406982170E-006  0.000000000000000E+000
 -3.441094224728841E-004  1.084457353240083E-005  0.000000000000000E+000
 -5.049717782060979E-004  1.219704286122590E-005  0.000000000000000E+000
 -7.040376599226490E-004  1.324814414482851E-005  0.000000000000000E+000
 -9.422390450433787E-004  1.396128133717233E-005  0.000000000000000E+000
 -1.218521161104389E-003  1.419019006862071E-005  0.000000000000000E+000
 -1.526113465713251E-003  1.392672788861834E-005  0.000000000000000E+000
 -1.852448099478804E-003  1.288243364215158E-005  0.000000000000000E+000
 -2.168650495767109E-003  1.076382439698463E-005  0.000000000000000E+000
 -2.428112663434819E-003  7.643136234261237E-006  0.000000000000000E+000
 -2.545592991410571E-003  1.271009899874744E-006  0.000000000000000E+000
 -2.429465562046778E-003 -6.105826258820175E-006  0.000000000000000E+000
 -2.133741798780312E-003 -1.128771112883152E-005  0.000000000000000E+000
 -1.751196945592128E-003 -1.508284598546997E-005  0.000000000000000E+000
 -1.347658523004131E-003 -1.671067117291326E-005  0.000000000000000E+000
 -9.749060969591179E-004 -1.673516946293423E-005  0.000000000000000E+000
 -6.577687072460922E-004 -1.546524891325089E-005  0.000000000000000E+000
 -4.061159865320516E-004 -1.344542819401171E-005  0.000000000000000E+000
 -2.174408043641305E-004 -1.101765967888725E-005  0.000000000000000E+000
 -8.407419613112582E-005 -8.489778390703848E-006  0.000000000000000E+000
  4.182760961487706E-006 -6.042538437763207E-006  0.000000000000000E+000
  5.744064983828449E-005 -3.800942236435389E-006  0.000000000000000E+000
  8.484512093301095E-005 -1.832201280517430E-006  0.000000000000000E+000
  9.405749202268858E-005 -1.723297844505321E-007  0.000000000000000E+000
  9.123102823275365E-005  1.164499176550340E-006  0.000000000000000E+000
  8.112165325204642E-005  2.176576454600870E-006  0.000000000000000E+000
  6.728815886173088E-005  2.870119752765579E-006  0.000000000000000E+000
  5.230058226172234E-005  3.255957876160187E-006  0.000000000000000E+000
  3.793558443430451E-005  3.347884811025630E-006  0.000000000000000E+000
  2.534339706979979E-005  3.163332027071532E-006  0.000000000000000E+000
  1.518651136796059E-005  2.724339920483867E-006  0.000000000000000E+000
  7.743751595365826E-006  2.061073286567432E-006  0.000000000000000E+000
  2.955814464705758E-006  1.225483175430623E-006  0.000000000000000E+000
  4.692903362991657E-007  3.472338219379499E-007  0.000000000000000E+000
 -2.409578275112285E-007 -2.410256425788227E-007  0.000000000000000E+000
  0.000000000000000E+000  0.000000000000000E+000  0.000000000000000E+000
  0.000000000000000E+000  0.000000000000000E+000  0.000000000000000E+000
  1.435686228906248E-006 -1.220006546156991E-006  0.000000000000000E+000
  4.983285534952116E-006 -4.035115149783473E-006  0.000000000000000E+000
  1.147537016783040E-005 -6.727135410125353E-006  0.000000000000000E+000
  2.101254487940497E-005 -8.445781596762653E-006  0.000000000000000E+000
  3.300961887621310E-005 -8.946845770964422E-006  0.000000000000000E+000
  4.611171314149434E-005 -8.185029107798170E-006  0.000000000000000E+000
  5.812795559735707E-005 -6.169824026630086E-006  0.000000000000000E+000
  6.595076117903525E-005 -2.947296749705017E-006  0.000000000000000E+000
  6.545096354921687E-005  1.399838759034308E-006  0.000000000000000E+000
  5.138011462951139E-005  6.751050308997860E-006  0.000000000000000E+000
  1.730972407405503E-005  1.294524163581752E-005  0.000000000000000E+000
 -4.436562677171227E-005  1.978003828473982E-005  0.000000000000000E+000
 -1.423111906652808E-004  2.700730527797742E-005  0.000000000000000E+000
 -2.860178298914485E-004  3.433553562554851E-005  0.000000000000000E+000
 -4.853217823557502E-004  4.143996187586557E-005  0.000000000000000E+000
 -7.498926464044086E-004  4.796436027548509E-005  0.000000000000000E+000
 -1.088097213633227E-003  5.357006274490995E-005  0.000000000000000E+000
 -1.506490690708057E-003  5.786736642937478E-005  0.000000000000000E+000
 -2.007191057946602E-003  6.058804918449397E-005  0.000000000000000E+000
 -2.587842540932010E-003  6.119870611238059E-005  0.000000000000000E+000
 -3.234202879526645E-003  5.937351917469362E-005  0.000000000000000E+000
 -3.919328121498298E-003  5.399238979250364E-005  0.000000000000000E+000
 -4.582397231509931E-003  4.381401587410503E-005  0.000000000000000E+000
 -5.124772874873276E-003  2.782511338667512E-005  0.000000000000000E+000
 -5.368374604232476E-003  1.169318294654260E-006  0.000000000000000E+000
 -5.123405644823571E-003 -2.813434720375194E-005  0.000000000000000E+000
 -4.503535647371112E-003 -5.006383886339283E-005  0.000000000000000E+000
 -3.702343688723919E-003 -6.515091636628583E-005  0.000000000000000E+000
 -2.858019167609557E-003 -7.168867272267469E-005  0.000000000000000E+000
 -2.077976445253537E-003 -7.136275124484842E-005  0.000000000000000E+000
 -1.413995940239106E-003 -6.583787857245113E-005  0.000000000000000E+000
 -8.864051685475908E-004 -5.716439196113463E-005  0.000000000000000E+000
 -4.900062623067064E-004 -4.687829145438268E-005  0.000000000000000E+000
 -2.087680899696302E-004 -3.619690869094925E-005  0.000000000000000E+000
 -2.146574912877039E-005 -2.590513412119877E-005  0.000000000000000E+000
  9.296699528520980E-005 -1.650987108046474E-005  0.000000000000000E+000
  1.535663285204979E-004 -8.294895412121492E-006  0.000000000000000E+000
  1.762743303458746E-004 -1.404131781185666E-006  0.000000000000000E+000
  1.738772256717379E-004  4.111005829559405E-006  0.000000000000000E+000
  1.562365538667508E-004  8.256649664774973E-006  0.000000000000000E+000
  1.307035226647642E-004  1.107426130464878E-005  0.000000000000000E+000
  1.025533204492640E-004  1.262942587964340E-005  0.000000000000000E+000
  7.539125664275149E-005  1.300728510430856E-005  0.000000000000000E+000
  5.150283591324389E-005  1.231365511715962E-005  0.000000000000000E+000
  3.214319853125260E-005  1.068541327929235E-005  0.000000000000000E+000
  1.775986664676765E-005  8.310712144932156E-006  0.000000000000000E+000
  8.137802905772594E-006  5.467372467309891E-006  0.000000000000000E+000
  2.604993304512332E-006  2.605837561357382E-006  0.000000000000000E+000
  3.468639062125432E-007  4.688812911830058E-007  0.000000000000000E+000
  0.000000000000000E+000  0.000000000000000E+000  0.000000000000000E+000
  0.000000000000000E+000  0.000000000000000E+000  0.000000000000000E+000
  1.896428839849991E-006 -5.062590308691236E-006  0.000000000000000E+000
  7.180318045202303E-006 -1.077903812555616E-005  0.000000000000000E+000
  1.636365102566340E-005 -1.582599677090385E-005  0.000000000000000E+000
  2.909396276749374E-005 -1.907658014030548E-005  0.000000000000000E+000
  4.450441637747514E-005 -1.983989852760807E-005  0.000000000000000E+000
  6.076050709794691E-005 -1.776011719889741E-005  0.000000000000000E+000
  7.475404352728861E-005 -1.270070694918967E-005  0.000000000000000E+000
  8.191292271715413E-005 -4.678938106550887E-006  0.000000000000000E+000
  7.602239157862684E-005  6.161658084235944E-006  0.000000000000000E+000
  4.906273258035652E-005  1.956217268127601E-005  0.000000000000000E+000
 -8.893169747780412E-006  3.514514372685066E-005  0.000000000000000E+000
 -1.096801804633176E-004  5.241126797903018E-005  0.000000000000000E+000
 -2.668715069209253E-004  7.073881145652357E-005  0.000000000000000E+000
 -4.954067568854847E-004  8.938623813630188E-005  0.000000000000000E+000
 -8.108644468923099E-004  1.075170749689100E-004  0.000000000000000E+000
 -1.228598908663094E-003  1.242144294000740E-004  0.000000000000000E+000
 -1.762033039336603E-003  1.385734321749345E-004  0.000000000000000E+000
 -2.421619425575610E-003  1.496066670737024E-004  0.000000000000000E+000
 -3.210952482572505E-003  1.565065516858133E-004  0.000000000000000E+000
 -4.126103656352772E-003  1.579865329961832E-004  0.000000000000000E+000
 -5.144594108306262E-003  1.529480770992799E-004  0.000000000000000E+000
 -6.223083230224361E-003  1.386623201329885E-004  0.000000000000000E+000
 -7.265461681812116E-003  1.119868542620048E-004  0.000000000000000E+000
 -8.115206591965296E-003  6.925055974592507E-005  0.000000000000000E+000
 -8.493453206640333E-003  1.893335699131715E-006  0.000000000000000E+000
 -8.105841712096353E-003 -7.192221263866557E-005  0.000000000000000E+000
 -7.131819099561957E-003 -1.291201900735698E-004  0.000000000000000E+000
 -5.874034314625527E-003 -1.677594010592979E-004  0.000000000000000E+000
 -4.549866100651698E-003 -1.850081871716975E-004  0.000000000000000E+000
 -3.326242367797079E-003 -1.843956599701024E-004  0.000000000000000E+000
 -2.284039915550492E-003 -1.705197252667390E-004  0.000000000000000E+000
 -1.454624827669830E-003 -1.484163289315261E-004  0.000000000000000E+000
 -8.299233686102202E-004 -1.221512514475500E-004  0.000000000000000E+000
 -3.848468799245499E-004 -9.481125120755940E-005  0.000000000000000E+000
 -8.631449366686933E-005 -6.846362599266299E-005  0.000000000000000E+000
  9.854024384730036E-005 -4.441540189033696E-005  0.000000000000000E+000
  1.993858281139684E-004 -2.341205367788807E-005  0.000000000000000E+000
  2.410551115140643E-004 -5.823070341730375E-006  0.000000000000000E+000
  2.434316409110780E-004  8.226484764744577E-006  0.000000000000000E+000
  2.218109129245365E-004  1.876768073549512E-005  0.000000000000000E+000
  1.875445766504339E-004  2.593343757012873E-005  0.000000000000000E+000
  1.487209293602964E-004  2.992827807864882E-005  0.000000000000000E+000
  1.108040730741994E-004  3.101755457571621E-005  0.000000000000000E+000
  7.719035564526703E-005  2.953182271492151E-005  0.000000000000000E+000
  4.967924830646295E-005  2.588589704576777E-005  0.000000000000000E+000
  2.885446200418329E-005  2.061156918632517E-005  0.000000000000000E+000
  1.438909570726484E-005  1.439742469825248E-005  0.000000000000000E+000
  5.461525272761818E-006  8.136841722763600E-006  0.000000000000000E+000
  1.223351525380050E-006  2.952810781629602E-006  0.000000000000000E+000
  0.000000000000000E+000  0.000000000000000E+000  0.000000000000000E+000
  0.000000000000000E+000  0.000000000000000E+000  0.000000000000000E+000
  2.313334787825545E-006 -1.062130991811180E-005  0.000000000000000E+000
  8.645012641124317E-006 -2.056010702798574E-005  0.000000000000000E+000
  1.944262488343464E-005 -2.860786717724753E-005  0.000000000000000E+000
  3.390057940884435E-005 -3.346323217251432E-005  0.000000000000000E+000
  5.068788056090717E-005 -3.403045357191790E-005  0.000000000000000E+000
  6.737973720719739E-005 -2.953506144799729E-005  0.000000000000000E+000
  7.995118751557684E-005 -1.953752606363677E-005  0.000000000000000E+000
  8.241056959623996E-005 -3.904913673917164E-006  0.000000000000000E+000
  6.647925187333069E-005  1.721812910269197E-005  0.000000000000000E+000
  2.132612647380897E-005  4.342090385754054E-005  0.000000000000000E+000
 -6.660593907710001E-005  7.402898515770508E-005  0.000000000000000E+000
 -2.136193195938600E-004  1.080983128619829E-004  0.000000000000000E+000
 -4.385477176332574E-004  1.444160104589273E-004  0.000000000000000E+000
 -7.622435450247682E-004  1.815138378128073E-004  0.000000000000000E+000
 -1.206594175776624E-003  2.177117390805383E-004  0.000000000000000E+000
 -1.793249996175375E-003  2.511621371948780E-004  0.000000000000000E+000
 -2.541329372143573E-003  2.799947670410082E-004  0.000000000000000E+000
 -3.465655909166592E-003  3.022177293829919E-004  0.000000000000000E+000
 -4.571623829557283E-003  3.160551807789464E-004  0.000000000000000E+000
 -5.853437854568866E-003  3.189797166142605E-004  0.000000000000000E+000
 -7.279549252846881E-003  3.084978104269380E-004  0.000000000000000E+000
 -8.787987645010922E-003  2.792807675132046E-004  0.000000000000000E+000
 -1.024372999179397E-002  2.250227395233090E-004  0.000000000000000E+000
 -1.142612675006776E-002  1.375233397366075E-004  0.000000000000000E+000
 -1.194730725140629E-002  3.085569487026550E-006  0.000000000000000E+000
 -1.140220322982498E-002 -1.443468544066578E-004  0.000000000000000E+000
 -1.004261036996997E-002 -2.603691752828296E-004  0.000000000000000E+000
 -8.288696752697226E-003 -3.379486578363179E-004  0.000000000000000E+000
 -6.444053737167268E-003 -3.730743260590929E-004  0.000000000000000E+000
 -4.738969025674331E-003 -3.721130592088849E-004  0.000000000000000E+000
 -3.285563912510044E-003 -3.446247947604441E-004  0.000000000000000E+000
 -2.126808988570785E-003 -3.005178419508955E-004  0.000000000000000E+000
 -1.251583862154206E-003 -2.480611554997673E-004  0.000000000000000E+000
 -6.250614803329361E-004 -1.934181474070242E-004  0.000000000000000E+000
 -2.014958613652382E-004 -1.407804752409178E-004  0.000000000000000E+000
  6.460325894401001E-005 -9.277711161688951E-005  0.000000000000000E+000
  2.142537586954519E-004 -5.091158438484532E-005  0.000000000000000E+000
  2.817620991890435E-004 -1.591716951809258E-005  0.000000000000000E+000
  2.945422247106186E-004  1.197745801150181E-005  0.000000000000000E+000
  2.736192287988028E-004  3.287306821996278E-005  0.000000000000000E+000
  2.345231409458061E-004  4.709009839331868E-005  0.000000000000000E+000
  1.882413922004759E-004  5.511026677518802E-005  0.000000000000000E+000
  1.421221613431602E-004  5.755076301423428E-005  0.000000000000000E+000
  1.006733381577074E-004  5.516383272874020E-005  0.000000000000000E+000
  6.625414787800859E-005  4.885082769422684E-005  0.000000000000000E+000
  3.965558717935319E-005  3.967584410418880E-005  0.000000000000000E+000
  2.059200531554023E-005  2.886066091279121E-005  0.000000000000000E+000
  8.297310679658061E-006  1.775097163918292E-005  0.000000000000000E+000
  2.055630869215242E-006  7.732854290322980E-006  0.000000000000000E+000
  0.000000000000000E+000  0.000000000000000E+000  0.000000000000000E+000
  0.000000000000000E+000  0.000000000000000E+000  0.000000000000000E+000
  2.499877432097356E-006 -1.759828077349954E-005  0.000000000000000E+000
  9.073238761038219E-006 -3.276288941054255E-005  0.000000000000000E+000
  2.011979412315258E-005 -4.417006113035050E-005  0.000000000000000E+000
  3.443308393120116E-005 -5.030001718970128E-005  0.000000000000000E+000
  5.011739105251996E-005 -4.967252803595097E-005  0.000000000000000E+000
  6.402641018992386E-005 -4.104277397163578E-005  0.000000000000000E+000
  7.113892135320370E-005 -2.353461186996417E-005  0.000000000000000E+000
  6.402539243388645E-005  3.286011973216378E-006  0.000000000000000E+000
  3.235035684416151E-005  3.938091018875494E-005  0.000000000000000E+000
 -3.754908824648091E-005  8.422472696717763E-005  0.000000000000000E+000
 -1.629463577375749E-004  1.367908729044195E-004  0.000000000000000E+000
 -3.647990985501365E-004  1.955423286292041E-004  0.000000000000000E+000
 -6.675098834531859E-004  2.584325236212169E-004  0.000000000000000E+000
 -1.098277897549575E-003  3.229319068289067E-004  0.000000000000000E+000
 -1.685854457329870E-003  3.861011045857860E-004  0.000000000000000E+000
 -2.458810718686891E-003  4.446830631212628E-004  0.000000000000000E+000
 -3.442626378252418E-003  4.953134435660407E-004  0.000000000000000E+000